 Gaussian 16, Revision A.03,
 Gaussian 16:  ES64L-G16RevA.03 25-Dec-2016

 -------------------------------------------------------------------
 #p opt freq b3lyp scrf=(solvent=diphenylether,pcm) def2svp em=gd3bj
 -------------------------------------------------------------------

 -------------------
 Title Card Required
 -------------------
 Symbolic Z-matrix:
 Charge =  0 Multiplicity = 1

 SCF Done:  E(RB3LYP) =  -891.674944870     A.U. after   12 cycles
 SCF Done:  E(RB3LYP) =  -891.744490717     A.U. after   11 cycles
 SCF Done:  E(RB3LYP) =  -891.780358423     A.U. after   12 cycles
 SCF Done:  E(RB3LYP) =  -891.797204925     A.U. after   11 cycles
 SCF Done:  E(RB3LYP) =  -891.800245770     A.U. after   11 cycles
 SCF Done:  E(RB3LYP) =  -891.800961105     A.U. after   11 cycles
 SCF Done:  E(RB3LYP) =  -891.801404707     A.U. after   12 cycles
 SCF Done:  E(RB3LYP) =  -891.801581511     A.U. after   10 cycles
 SCF Done:  E(RB3LYP) =  -891.801662247     A.U. after   10 cycles
 SCF Done:  E(RB3LYP) =  -891.801665930     A.U. after   10 cycles
 SCF Done:  E(RB3LYP) =  -891.801700636     A.U. after    9 cycles
 SCF Done:  E(RB3LYP) =  -891.801716180     A.U. after    9 cycles
 SCF Done:  E(RB3LYP) =  -891.801729055     A.U. after    9 cycles
 SCF Done:  E(RB3LYP) =  -891.801735320     A.U. after    9 cycles
 SCF Done:  E(RB3LYP) =  -891.801737859     A.U. after    9 cycles
 SCF Done:  E(RB3LYP) =  -891.801738608     A.U. after    7 cycles
 SCF Done:  E(RB3LYP) =  -891.801738707     A.U. after    7 cycles
 SCF Done:  E(RB3LYP) =  -891.801738716     A.U. after    6 cycles
 Optimization completed.
    -- Stationary point found.
 Normal termination of Gaussian 16 at Fri Sep 13 23:22:16 2024.

 -------------------------------------------------------------------
 #P Geom=AllCheck Guess=TCheck SCRF=Check GenChk RB3LYP/def2SVP Freq
 -------------------------------------------------------------------

 Structure from the checkpoint file:  "oh.chk"
 -------------------
 Title Card Required
 -------------------
 Charge =  0 Multiplicity = 1

                         Standard orientation:
 ---------------------------------------------------------------------
 Center     Atomic      Atomic             Coordinates (Angstroms)
 Number     Number       Type             X           Y           Z
 ---------------------------------------------------------------------
      1          6           0        1.318546   -1.735936    0.499700
      2          1           0        1.355113   -1.484693    1.574058
      3          6           0        0.063227   -1.089751   -0.102692
      4          1           0        0.100623   -1.233804   -1.204426
      5          6           0       -1.211227   -1.755269    0.410273
      6          1           0       -1.090552   -2.845632    0.302686
      7          1           0       -1.298307   -1.555418    1.492215
      8          6           0       -2.508832   -1.348387   -0.311965
      9          1           0       -2.329759   -1.471491   -1.395225
     10          6           0       -2.909778    0.098848   -0.088286
     11          6           0       -3.054907    0.977322   -1.169425
     12          6           0       -3.187630    0.582214    1.199358
     13          6           0       -3.456244    2.302499   -0.976300
     14          1           0       -2.843615    0.616649   -2.179920
     15          6           0       -3.589145    1.903984    1.400431
     16          1           0       -3.082654   -0.081525    2.061326
     17          6           0       -3.724027    2.772585    0.311846
     18          1           0       -3.558847    2.970195   -1.835775
     19          1           0       -3.795907    2.260397    2.412977
     20          1           0       -4.036797    3.807980    0.468036
     21          6           0        2.647086   -1.352517   -0.181371
     22          1           0        2.555155   -1.629598   -1.246855
     23          6           0        2.928695    0.140312   -0.137797
     24          6           0        2.980977    0.896529   -1.318492
     25          6           0        3.135843    0.803368    1.084284
     26          6           0        3.227725    2.274092   -1.284788
     27          1           0        2.822950    0.397010   -2.278144
     28          6           0        3.385681    2.175446    1.122940
     29          1           0        3.091481    0.239865    2.019134
     30          6           0        3.431132    2.918130   -0.062839
     31          1           0        3.260226    2.842585   -2.217378
     32          1           0        3.539821    2.671641    2.084242
     33          1           0        3.621977    3.993336   -0.031509
     34          6           0        3.815919   -2.170381    0.402597
     35          1           0        3.550519   -3.239811    0.341341
     36          1           0        3.911756   -1.945032    1.479198
     37          1           0        1.214265   -2.831988    0.435342
     38          6           0       -3.655324   -2.309639    0.069149
     39          1           0       -3.316522   -3.343035   -0.120432
     40          1           0       -3.831530   -2.243669    1.157394
     41          6           0        5.150821   -1.930489   -0.298416
     42          1           0        5.471031   -0.881002   -0.205463
     43          1           0        5.944253   -2.563616    0.128629
     44          1           0        5.080951   -2.160340   -1.374773
     45          6           0       -4.959885   -2.053906   -0.681504
     46          1           0       -5.729004   -2.792572   -0.405817
     47          1           0       -5.359727   -1.051814   -0.462796
     48          1           0       -4.808955   -2.117697   -1.772261
     49          8           0       -0.020937    0.293016    0.202109
     50          1           0        0.757644    0.734625   -0.162888
 ---------------------------------------------------------------------

 SCF Done:  E(RB3LYP) =  -891.801738716     A.U. after    1 cycles

 The electronic state is 1-A.
 Alpha  occ. eigenvalues --  -19.11742 -10.22745 -10.19889 -10.19531 -10.19481
 Alpha  occ. eigenvalues --  -10.19390 -10.19384 -10.19326 -10.19234 -10.18696
 Alpha  occ. eigenvalues --  -10.18545 -10.18480 -10.18380 -10.18358 -10.18204
 Alpha  occ. eigenvalues --  -10.18074 -10.18026 -10.17960 -10.17957 -10.17831
 Alpha  occ. eigenvalues --  -10.17659 -10.17306  -0.99901  -0.85750  -0.84540
 Alpha  occ. eigenvalues --   -0.80875  -0.79971  -0.75311  -0.74189  -0.73874
 Alpha  occ. eigenvalues --   -0.73023  -0.72900  -0.70898  -0.66351  -0.62209
 Alpha  occ. eigenvalues --   -0.61051  -0.60198  -0.60047  -0.59052  -0.57228
 Alpha  occ. eigenvalues --   -0.56002  -0.54966  -0.51988  -0.51133  -0.49996
 Alpha  occ. eigenvalues --   -0.47279  -0.46585  -0.45831  -0.44894  -0.44424
 Alpha  occ. eigenvalues --   -0.44197  -0.43919  -0.43442  -0.42293  -0.42087
 Alpha  occ. eigenvalues --   -0.41371  -0.41214  -0.40844  -0.39824  -0.38775
 Alpha  occ. eigenvalues --   -0.37706  -0.36848  -0.36690  -0.36268  -0.35964
 Alpha  occ. eigenvalues --   -0.35497  -0.34891  -0.34764  -0.34525  -0.33872
 Alpha  occ. eigenvalues --   -0.33348  -0.32632  -0.32362  -0.31947  -0.31694
 Alpha  occ. eigenvalues --   -0.30666  -0.26882  -0.25997  -0.25075  -0.24792
 Alpha  occ. eigenvalues --   -0.23340
 Alpha virt. eigenvalues --   -0.01746  -0.01363  -0.00380   0.00050   0.05048
 Alpha virt. eigenvalues --    0.06063   0.06325   0.07181   0.07651   0.07985
 Alpha virt. eigenvalues --    0.08293   0.09644   0.10373   0.10644   0.11431

 Mulliken charges:
               1
     1  C    0.068836
     2  H   -0.007756
     3  C    0.142680
     4  H   -0.034839
     5  C    0.084083
     6  H   -0.012591
     7  H   -0.010484
     8  C   -0.004463
     9  H   -0.031756
    10  C    0.071907
    11  C   -0.035059
    12  C   -0.032948
    13  C    0.009545
    14  H   -0.031483
    15  C    0.008738
    16  H   -0.022345
    17  C    0.003176
    18  H   -0.017341
    19  H   -0.017245
    20  H   -0.015450
    21  C    0.021327
    22  H   -0.024740
    23  C   -0.059789
    24  C   -0.037321
    25  C   -0.015237
    26  C    0.019637
    27  H   -0.016450
    28  C    0.016873
    29  H   -0.011400
    30  C    0.010337
    31  H   -0.007083
    32  H   -0.007199
    33  H   -0.005415
    34  C    0.019056
    35  H   -0.002164
    36  H   -0.001956
    37  H   -0.010176
    38  C    0.017889
    39  H   -0.005288
    40  H   -0.004812
    41  C    0.027131
    42  H    0.019330
    43  H    0.010158
    44  H    0.004361
    45  C    0.027500
    46  H    0.007105
    47  H    0.019918
    48  H    0.002108
    49  O   -0.303487
    50  H    0.174583
 Sum of Mulliken charges =  -0.00000

 Dipole moment (field-independent basis, Debye):
    X=              2.1043    Y=             -1.2173    Z=             -0.5480  Tot=              2.4920
 Quadrupole moment (field-independent basis, Debye-Ang):
   XX=           -140.4510   YY=           -126.7991   ZZ=           -127.9825
   XY=              2.0005   XZ=             -0.1673   YZ=             -0.4733

  Exact polarizability: 222.086  -3.992 312.449  -1.420  -2.685 260.044
 Approx polarizability: 241.441  -6.545 389.556  -3.471  -2.880 375.335

                      1                      2                      3
                      A                      A                      A
 Frequencies --     12.0039                27.0264                34.7272
 Red. masses --      4.1570                 4.9594                 4.0501
 Frc consts  --      0.0004                 0.0021                 0.0029
 IR Inten    --      0.0172                 0.0737                 0.0530

                      4                      5                      6
                      A                      A                      A
 Frequencies --     43.6020                61.3790                70.0227
 Red. masses --      3.8496                 3.8309                 3.9845
 Frc consts  --      0.0043                 0.0085                 0.0115
 IR Inten    --      0.0188                 0.2666                 0.3721

                      7                      8                      9
                      A                      A                      A
 Frequencies --     75.4970                88.8651                91.5559
 Red. masses --      3.3527                 2.5225                 3.4031
 Frc consts  --      0.0113                 0.0117                 0.0168
 IR Inten    --      0.5733                 0.0765                 0.4165

                     10                     11                     12
                      A                      A                      A
 Frequencies --    137.1794               148.0028               162.8319
 Red. masses --      2.0640                 2.7945                 1.7207
 Frc consts  --      0.0229                 0.0361                 0.0269
 IR Inten    --      0.0542                 0.1246                 0.1874

                     13                     14                     15
                      A                      A                      A
 Frequencies --    195.6394               208.8040               220.2149
 Red. masses --      3.5266                 2.8696                 2.7092
 Frc consts  --      0.0795                 0.0737                 0.0774
 IR Inten    --      0.2280                 0.2503                 1.5878

                     16                     17                     18
                      A                      A                      A
 Frequencies --    238.7908               257.0123               261.4185
 Red. masses --      3.2936                 1.5052                 1.4136
 Frc consts  --      0.1107                 0.0586                 0.0569
 IR Inten    --      0.3548                 0.2093                 0.4896

                     19                     20                     21
                      A                      A                      A
 Frequencies --    275.7243               303.4742               311.7215
 Red. masses --      2.8586                 3.7159                 3.6812
 Frc consts  --      0.1280                 0.2016                 0.2108
 IR Inten    --      1.1754                 1.1090                 0.4138

                     22                     23                     24
                      A                      A                      A
 Frequencies --    355.4055               411.5370               418.6127
 Red. masses --      1.0968                 2.9325                 3.0048
 Frc consts  --      0.0816                 0.2926                 0.3102
 IR Inten    --    135.4156                 0.9747                 0.4375

                     25                     26                     27
                      A                      A                      A
 Frequencies --    420.9468               421.0789               447.6116
 Red. masses --      2.8434                 2.8313                 3.6890
 Frc consts  --      0.2969                 0.2958                 0.4355
 IR Inten    --      0.0209                 0.2972                 0.0285

                     28                     29                     30
                      A                      A                      A
 Frequencies --    471.2635               522.8154               529.8476
 Red. masses --      2.0987                 2.9548                 2.7312
 Frc consts  --      0.2746                 0.4759                 0.4518
 IR Inten    --      6.0538                 3.1795                14.8019

                     31                     32                     33
                      A                      A                      A
 Frequencies --    564.2349               572.7636               590.3387
 Red. masses --      2.7108                 3.0498                 2.7715
 Frc consts  --      0.5085                 0.5895                 0.5691
 IR Inten    --     12.3555                 0.8716                 4.7495

                     34                     35                     36
                      A                      A                      A
 Frequencies --    605.1489               634.4686               635.6172
 Red. masses --      2.7176                 6.3440                 6.1600
 Frc consts  --      0.5864                 1.5047                 1.4663
 IR Inten    --      1.6763                 0.0103                 0.0704

                     37                     38                     39
                      A                      A                      A
 Frequencies --    722.2094               726.1937               748.0469
 Red. masses --      1.5355                 1.5404                 2.5315
 Frc consts  --      0.4719                 0.4786                 0.8346
 IR Inten    --     47.3377                42.9637                 3.5486

                     40                     41                     42
                      A                      A                      A
 Frequencies --    753.6438               779.6761               783.4600
 Red. masses --      2.2252                 1.8187                 1.9253
 Frc consts  --      0.7446                 0.6514                 0.6963
 IR Inten    --      7.8052                33.0134                 0.0867

                     43                     44                     45
                      A                      A                      A
 Frequencies --    813.1543               820.5558               862.0024
 Red. masses --      1.6222                 1.6884                 1.2541
 Frc consts  --      0.6320                 0.6698                 0.5490
 IR Inten    --      4.9939                10.3313                 0.1184

                     46                     47                     48
                      A                      A                      A
 Frequencies --    868.9367               875.3404               897.9212
 Red. masses --      1.2524                 2.4732                 1.6871
 Frc consts  --      0.5572                 1.1165                 0.8014
 IR Inten    --      0.2328                 4.3976                 2.3022

                     49                     50                     51
                      A                      A                      A
 Frequencies --    927.0985               932.1073               945.3090
 Red. masses --      1.6139                 1.6268                 1.8560
 Frc consts  --      0.8173                 0.8328                 0.9772
 IR Inten    --      0.8254                 3.2292                 0.6848

                     52                     53                     54
                      A                      A                      A
 Frequencies --    950.9327              1000.0019              1006.9489
 Red. masses --      1.6709                 1.3854                 1.4364
 Frc consts  --      0.8902                 0.8162                 0.8581
 IR Inten    --      2.0054                 0.0714                 0.1508

                     55                     56                     57
                      A                      A                      A
 Frequencies --   1008.9343              1016.0036              1016.3595
 Red. masses --      1.8874                 5.7548                 5.7634
 Frc consts  --      1.1320                 3.5000                 3.5077
 IR Inten    --      1.4840                 0.2091                 0.4868

                     58                     59                     60
                      A                      A                      A
 Frequencies --   1020.6999              1024.3971              1031.4299
 Red. masses --      2.5388                 1.4241                 1.3544
 Frc consts  --      1.5584                 0.8805                 0.8489
 IR Inten    --      3.0526                 0.4517                 0.1722

                     61                     62                     63
                      A                      A                      A
 Frequencies --   1042.6243              1048.7752              1050.6909
 Red. masses --      2.8246                 1.7189                 2.1825
 Frc consts  --      1.8091                 1.1139                 1.4195
 IR Inten    --     10.1713                 3.0153                 1.4542

                     64                     65                     66
                      A                      A                      A
 Frequencies --   1052.2875              1060.9901              1068.6904
 Red. masses --      2.0074                 1.8516                 1.8965
 Frc consts  --      1.3096                 1.2281                 1.2762
 IR Inten    --      0.4911                17.3799                 1.6589

                     67                     68                     69
                      A                      A                      A
 Frequencies --   1086.9469              1091.3852              1101.0899
 Red. masses --      1.7176                 1.7430                 1.6671
 Frc consts  --      1.1956                 1.2232                 1.1908
 IR Inten    --     25.9388                 0.0891                 1.9954

                     70                     71                     72
                      A                      A                      A
 Frequencies --   1112.9018              1114.8400              1128.9343
 Red. masses --      1.8798                 1.8953                 2.5224
 Frc consts  --      1.3718                 1.3879                 1.8941
 IR Inten    --      3.0126                 1.8040                65.5752

                     73                     74                     75
                      A                      A                      A
 Frequencies --   1155.9052              1164.0162              1166.5875
 Red. masses --      2.7617                 1.0750                 1.0763
 Frc consts  --      2.1741                 0.8582                 0.8630
 IR Inten    --     12.7593                 0.1546                 0.1912

                     76                     77                     78
                      A                      A                      A
 Frequencies --   1183.8898              1187.7537              1189.5645
 Red. masses --      1.3036                 1.1125                 1.1213
 Frc consts  --      1.0765                 0.9247                 0.9349
 IR Inten    --      1.7179                 0.4577                 0.0892

                     79                     80                     81
                      A                      A                      A
 Frequencies --   1220.5638              1226.8840              1228.6470
 Red. masses --      1.7327                 1.5570                 2.0513
 Frc consts  --      1.5209                 1.3809                 1.8244
 IR Inten    --      4.5058                 4.9192                 3.5357

                     82                     83                     84
                      A                      A                      A
 Frequencies --   1256.7933              1263.7067              1280.1402
 Red. masses --      1.2954                 1.3579                 1.2242
 Frc consts  --      1.2055                 1.2777                 1.1820
 IR Inten    --      2.2979                 1.3661                 5.5063

                     85                     86                     87
                      A                      A                      A
 Frequencies --   1294.1612              1302.6774              1325.5174
 Red. masses --      1.2371                 1.1558                 1.4164
 Frc consts  --      1.2208                 1.1556                 1.4662
 IR Inten    --     22.2726                11.8394                 1.0306

                     88                     89                     90
                      A                      A                      A
 Frequencies --   1332.8467              1336.9797              1362.6674
 Red. masses --      1.4056                 1.3330                 2.3781
 Frc consts  --      1.4712                 1.4039                 2.6017
 IR Inten    --      0.6694                 0.6033                 1.1669

                     91                     92                     93
                      A                      A                      A
 Frequencies --   1363.3202              1365.1469              1369.1820
 Red. masses --      1.7012                 3.0164                 1.4480
 Frc consts  --      1.8630                 3.3120                 1.5993
 IR Inten    --      6.9232                 2.6255                 1.5234

                     94                     95                     96
                      A                      A                      A
 Frequencies --   1376.6864              1388.8483              1390.8926
 Red. masses --      1.5413                 1.5181                 1.5402
 Frc consts  --      1.7211                 1.7253                 1.7556
 IR Inten    --      3.4719                16.3735                 1.3156

                     97                     98                     99
                      A                      A                      A
 Frequencies --   1397.2601              1400.4128              1402.7435
 Red. masses --      1.3549                 1.3637                 1.4217
 Frc consts  --      1.5585                 1.5758                 1.6482
 IR Inten    --      4.3167                 6.2900                 1.3425

                    100                    101                    102
                      A                      A                      A
 Frequencies --   1435.4481              1442.0990              1449.0976
 Red. masses --      1.3471                 1.2654                 1.1528
 Frc consts  --      1.6354                 1.5505                 1.4262
 IR Inten    --     11.6494                13.0330                 6.2753

                    103                    104                    105
                      A                      A                      A
 Frequencies --   1458.7937              1459.8220              1462.9046
 Red. masses --      1.0805                 1.0813                 1.0380
 Frc consts  --      1.3548                 1.3577                 1.3088
 IR Inten    --      0.2333                 5.1957                 4.7987

                    106                    107                    108
                      A                      A                      A
 Frequencies --   1463.2299              1475.4390              1475.5127
 Red. masses --      1.0383                 1.0815                 1.0819
 Frc consts  --      1.3097                 1.3871                 1.3878
 IR Inten    --      5.3604                 1.8924                10.8389

                    109                    110                    111
                      A                      A                      A
 Frequencies --   1484.2667              1485.1789              1526.0752
 Red. masses --      2.2434                 2.2687                 2.4110
 Frc consts  --      2.9120                 2.9484                 3.3082
 IR Inten    --      7.4007                 6.5974                14.2309

                    112                    113                    114
                      A                      A                      A
 Frequencies --   1528.6780              1638.9824              1642.5461
 Red. masses --      2.4558                 5.8971                 6.0019
 Frc consts  --      3.3812                 9.3334                 9.5405
 IR Inten    --     14.9520                 1.7595                 1.2623

                    115                    116                    117
                      A                      A                      A
 Frequencies --   1661.2994              1664.2188              2937.8345
 Red. masses --      6.0994                 6.1849                 1.0832
 Frc consts  --      9.9182                10.0926                 5.5081
 IR Inten    --      5.7820                10.5401                60.6526

                    118                    119                    120
                      A                      A                      A
 Frequencies --   3013.6259              3015.8782              3020.6487
 Red. masses --      1.0821                 1.0824                 1.0618
 Frc consts  --      5.7904                 5.8006                 5.7082
 IR Inten    --     15.8933                19.1427                36.8888

                    121                    122                    123
                      A                      A                      A
 Frequencies --   3023.4612              3026.2341              3026.7531
 Red. masses --      1.0608                 1.0387                 1.0389
 Frc consts  --      5.7132                 5.6048                 5.6076
 IR Inten    --     11.0633                32.5415                35.1449

                    124                    125                    126
                      A                      A                      A
 Frequencies --   3028.2906              3035.8256              3061.2163
 Red. masses --      1.0617                 1.0617                 1.1038
 Frc consts  --      5.7367                 5.7652                 6.0941
 IR Inten    --     24.7515                86.1445                28.3469

                    127                    128                    129
                      A                      A                      A
 Frequencies --   3064.6351              3075.7865              3085.8117
 Red. masses --      1.1040                 1.1044                 1.1032
 Frc consts  --      6.1091                 6.1560                 6.1893
 IR Inten    --     21.0327                11.7570                93.6213

                    130                    131                    132
                      A                      A                      A
 Frequencies --   3101.9255              3104.0250              3115.0275
 Red. masses --      1.1028                 1.1029                 1.1035
 Frc consts  --      6.2518                 6.2610                 6.3090
 IR Inten    --     44.8130                43.7662                43.1402

                    133                    134                    135
                      A                      A                      A
 Frequencies --   3117.0547              3163.5865              3168.5733
 Red. masses --      1.1031                 1.0860                 1.0876
 Frc consts  --      6.3149                 6.4041                 6.4334
 IR Inten    --     43.4385                 9.7054                 1.0483

                    136                    137                    138
                      A                      A                      A
 Frequencies --   3170.5327              3176.5560              3177.5691
 Red. masses --      1.0873                 1.0876                 1.0915
 Frc consts  --      6.4399                 6.4658                 6.4932
 IR Inten    --      6.7308                 0.4733                13.9919

                    139                    140                    141
                      A                      A                      A
 Frequencies --   3184.3132              3184.9375              3191.8644
 Red. masses --      1.0957                 1.0915                 1.0957
 Frc consts  --      6.5460                 6.5232                 6.5770
 IR Inten    --     44.4518                 9.0360                29.2136

                    142                    143                    144
                      A                      A                      A
 Frequencies --   3195.1673              3201.4921              3794.2557
 Red. masses --      1.0998                 1.0999                 1.0659
 Frc consts  --      6.6154                 6.6423                 9.0409
 IR Inten    --     19.0266                14.9252               235.5671

 - Thermochemistry -
 -------------------
 Temperature   298.150 Kelvin.  Pressure   1.00000 Atm.
 Atom     1 has atomic number  6 and mass  12.00000

 Molecular mass:   296.21402 amu.
 Principal axes and moments of inertia in atomic units:
                           1         2         3
     Eigenvalues --  4137.93252********************
           X            1.00000  -0.00015   0.00152
           Y            0.00015   1.00000  -0.00033
           Z           -0.00152   0.00033   1.00000
 This molecule is an asymmetric top.
 Rotational symmetry number  1.
 Warning -- assumption of classical behavior for rotation
           may cause significant error
 Rotational temperatures (Kelvin)      0.02093     0.00745     0.00608
 Rotational constants (GHZ):           0.43615     0.15520     0.12666
 Zero-point vibrational energy    1157201.4 (Joules/Mol)
                                  276.57778 (Kcal/Mol)
 Warning -- explicit consideration of  34 degrees of freedom as
           vibrations may cause significant error
 Vibrational temperatures:     17.27    38.88    49.96    62.73    88.31
          (Kelvin)            100.75   108.62   127.86   131.73   197.37
                              212.94   234.28   281.48   300.42   316.84
                              343.57   369.78   376.12   396.71   436.63
                              448.50   511.35   592.11   602.29   605.65
                              605.84   644.01   678.04   752.21   762.33
                              811.81   824.08   849.37   870.67   912.86
                              914.51  1039.10  1044.83  1076.27  1084.33
                             1121.78  1127.22  1169.95  1180.60  1240.23
                             1250.21  1259.42  1291.91  1333.89  1341.09
                             1360.09  1368.18  1438.78  1448.77  1451.63
                             1461.80  1462.31  1468.56  1473.88  1484.00
                             1500.10  1508.95  1511.71  1514.01  1526.53
                             1537.61  1563.87  1570.26  1584.22  1601.22
                             1604.01  1624.28  1663.09  1674.76  1678.46
                             1703.35  1708.91  1711.52  1756.12  1765.21
                             1767.75  1808.25  1818.19  1841.84  1862.01
                             1874.26  1907.12  1917.67  1923.62  1960.57
                             1961.51  1964.14  1969.95  1980.74  1998.24
                             2001.18  2010.35  2014.88  2018.24  2065.29
                             2074.86  2084.93  2098.88  2100.36  2104.79
                             2105.26  2122.83  2122.93  2135.53  2136.84
                             2195.68  2199.43  2358.13  2363.26  2390.24
                             2394.44  4226.89  4335.94  4339.18  4346.04
                             4350.09  4354.08  4354.82  4357.03  4367.88
                             4404.41  4409.33  4425.37  4439.79  4462.98
                             4466.00  4481.83  4484.75  4551.70  4558.87
                             4561.69  4570.36  4571.81  4581.52  4582.41
                             4592.38  4597.13  4606.23  5459.09

 Zero-point correction=                           0.440755 (Hartree/Particle)
 Thermal correction to Energy=                    0.462855
 Thermal correction to Enthalpy=                  0.463799
 Thermal correction to Gibbs Free Energy=         0.387107
 Sum of electronic and zero-point Energies=           -891.360984
 Sum of electronic and thermal Energies=              -891.338884
 Sum of electronic and thermal Enthalpies=            -891.337940
 Sum of electronic and thermal Free Energies=         -891.414631

                     E (Thermal)             CV                S
                      KCal/Mol        Cal/Mol-Kelvin    Cal/Mol-Kelvin
 Total                  290.446             85.279            161.411
 Electronic               0.000              0.000              0.000
 Translational            0.889              2.981             42.955
 Rotational               0.889              2.981             34.882
 Vibrational            288.668             79.317             83.574
 Vibration     1          0.593              1.987              7.648
 Vibration     2          0.593              1.984              6.037
 Vibration     3          0.594              1.983              5.539
 Vibration     4          0.595              1.980              5.088
 Vibration     5          0.597              1.973              4.412
 Vibration     6          0.598              1.968              4.153
 Vibration     7          0.599              1.965              4.005
 Vibration     8          0.602              1.957              3.685
 Vibration     9          0.602              1.955              3.627
 Vibration    10          0.614              1.916              2.843
 Vibration    11          0.617              1.905              2.698
 Vibration    12          0.623              1.888              2.517
 Vibration    13          0.636              1.846              2.174
 Vibration    14          0.642              1.827              2.054
 Vibration    15          0.647              1.810              1.957
 Vibration    16          0.657              1.781              1.812
 Vibration    17          0.667              1.751              1.682
 Vibration    18          0.669              1.743              1.652
 Vibration    19          0.677              1.718              1.560
 Vibration    20          0.695              1.667              1.398
 Vibration    21          0.700              1.651              1.353
 Vibration    22          0.731              1.564              1.142
 Vibration    23          0.776              1.445              0.921
 Vibration    24          0.781              1.430              0.897
 Vibration    25          0.783              1.425              0.889
 Vibration    26          0.784              1.424              0.888
 Vibration    27          0.807              1.366              0.803
 Vibration    28          0.828              1.314              0.734
 Vibration    29          0.878              1.199              0.603
 Vibration    30          0.885              1.184              0.588
 Vibration    31          0.920              1.109              0.515
 Vibration    32          0.929              1.090              0.499
 Vibration    33          0.948              1.052              0.467
 Vibration    34          0.964              1.021              0.441

                           ! Non-Optimized Parameters !
 Normal termination of Gaussian 16 at Sat Sep 14 01:31:43 2024.
